define                  = -DUSE_MODIFIED_TIP3P_EPS
integrator              = md
nsteps                  = 50000000
dt                      = 0.002
nstxout-compressed      = 25000
nstvout                 = 0
nstfout                 = 0
nstlog                  = 25000
nstenergy               = 25000
compressed-x-grps       = System
continuation            = yes
constraint_algorithm    = lincs
constraints             = h-bonds
lincs_iter              = 1
lincs_order             = 4
cutoff-scheme           = Verlet
coulombtype             = PME
rcoulomb                = 1.2
vdwtype                 = Cut-off
vdw-modifier            = Force-switch
rvdw-switch             = 1.0
rvdw                    = 1.2
pbc                     = xyz
tcoupl                  = V-rescale
tc-grps                 = Protein Non-Protein
tau_t                   = 0.1 0.1
ref_t                   = 310 310
pcoupl                  = C-rescale
pcoupltype              = isotropic
tau_p                   = 5.0
ref_p                   = 1.0
compressibility         = 4.5e-5
gen_vel                 = no
