define                  = -DUSE_MODIFIED_TIP3P_EPS
integrator              = steep
emtol                   = 1000.0
emstep                  = 0.01
nsteps                  = 50000
cutoff-scheme           = Verlet
coulombtype             = PME
rcoulomb                = 1.2
vdwtype                 = Cut-off
vdw-modifier            = Force-switch
rvdw-switch             = 1.0
rvdw                    = 1.2
pbc                     = xyz
